version 3
run General-0-20230324-05:56:52-21712
attr configname General
attr datetime 20230324-05:56:52
attr datetimef 20230324-055652
attr experiment General
attr inifile omnetpp.ini
attr iterationvars ""
attr iterationvarsd ""
attr iterationvarsf ""
attr measurement ""
attr network RoutingScenario
attr processid 21712
attr repetition 0
attr replication #0
attr resultdir results
attr runnumber 0
attr seedset 0
config image-path ../../../inet4.4/images:../../../veins-veins-5.2/images
config network RoutingScenario
config sim-time-limit 600s
config debug-on-errors true
config cmdenv-express-mode true
config image-path ../../../../images
config *.node[*].numApps 1
config *.node[*].app[0].typename UdpBasicApp
config *.node[*].app[0].destAddresses "\"node[*]\""
config *.node[*].app[0].destPort 5000
config *.node[*].app[0].messageLength 1000B
config *.node[*].app[0].sendInterval exponential(12ms)
config *.node[*].app[0].packetName "\"UDPData\""
config *.node[*].wlan[0].opMode "\"p\""
config *.node[*].wlan[0].radio.bandName "\"5.9 GHz\""
config *.node[*].wlan[0].radio.channelNumber 3
config *.node[*].wlan[0].radio.transmitter.power 20mW
config *.node[*].wlan[0].radio.bandwidth "10 MHz"
config *.node[*].ipv4.configurator.typename HostAutoConfigurator
config *.node[*].ipv4.configurator.interfaces "\"wlan0\""
config *.node[*].ipv4.configurator.mcastGroups "\"224.0.0.1\""
config *.node[*].mobility.typename VeinsInetMobility
config *.manager.updateInterval 0.1s
config *.manager.host "\"localhost\""
config *.manager.port 9999
config *.manager.autoShutdown true
config *.manager.launchConfig "xmldoc(\"square.launchd.xml\")"
config *.manager.moduleType "\"vanet.veins_inet.VeinsInetRoutingCar\""
config **.vector-recording true
config **.router "\"Aodv\""

vector 0 RoutingScenario.node[0].wlan[0].mac.dcf frameSequenceActive:vector ETV
attr autoWarmupFilter false
attr interpolationmode sample-hold
attr recordingmode vector
attr source warmup(count(frameSequenceStarted)-count(frameSequenceFinished))
attr title "frame sequence active"
vector 1 RoutingScenario.node[0].wlan[0].mac.dcf.channelAccess.inProgressFrames queueLength:vector ETV
attr autoWarmupFilter false
attr interpolationmode sample-hold
attr recordingmode vector
attr source "warmup(count(packetEnqueued) - count(packetDequeued))"
attr title "queue length"
vector 2 RoutingScenario.node[0].wlan[0].mac.dcf.channelAccess.contention backoffActive:vector ETV
attr autoWarmupFilter false
attr interpolationmode sample-hold
attr recordingmode vector
attr source warmup(count(backoffStarted)-count(backoffStopped))
attr title "backoff active"
vector 3 RoutingScenario.node[0].udp passedUpPk:vector(count) ETV
attr interpolationmode none
attr recordingmode vector(count)
attr source packetSentToUpper
attr title "packets passed up, count"
vector 4 RoutingScenario.node[0].udp droppedPkWrongPort:vector(count) ETV
attr interpolationmode none
attr recordingmode vector(count)
attr source packetDropReasonIsNoPortFound(packetDropped)
attr title "packets dropped (wrong port), count"
vector 5 RoutingScenario.node[0].udp droppedPkBadChecksum:vector(count) ETV
attr interpolationmode none
attr recordingmode vector(count)
attr source packetDropReasonIsIncorrectlyReceived(packetDropped)
attr title "packets dropped (checksum error), count"
vector 6 RoutingScenario.node[0].wlan[0].radio radioMode:vector ETV
attr interpolationmode sample-hold
attr recordingmode vector
attr source radioModeChanged
attr title "Radio mode"
vector 7 RoutingScenario.node[0].wlan[0].radio radioChannel:vector ETV
attr interpolationmode sample-hold
attr recordingmode vector
attr source radioChannelChanged
attr title "Radio channel"
vector 8 RoutingScenario.node[0].wlan[0].radio receptionState:vector ETV
attr interpolationmode sample-hold
attr recordingmode vector
attr source receptionStateChanged
attr title "Radio reception state"
vector 9 RoutingScenario.node[0].wlan[0].mac.dcf.channelAccess.contention stateChanged:vector ETV
attr enum IDLE,DEFER,IFS_AND_BACKOFF
attr interpolationmode none
attr recordingmode vector
attr title "contention state changed"
attr type enum
vector 10 RoutingScenario.node[0].wlan[0].mac.dcf.recoveryProcedure contentionWindowChanged:vector ETV
attr interpolationmode sample-hold
attr recordingmode vector
attr title "contention window"
vector 11 RoutingScenario.node[0].app[0] packetSent:vector(packetBytes) ETV
attr interpolationmode none
attr recordingmode vector(packetBytes)
attr source packetSent
attr title "packets sent, packetBytes"
vector 12 RoutingScenario.node[0].udp packetSent:vector(packetBytes) ETV
attr interpolationmode none
attr recordingmode vector(packetBytes)
attr source packetSent
attr title "packets sent, packetBytes"
vector 13 RoutingScenario.node[0].lo[0].lo rcvdPkFromHl:vector(packetBytes) ETV
attr interpolationmode none
attr recordingmode vector(packetBytes)
attr source packetReceivedFromUpper
attr title "packets received from higher layer, packetBytes"
vector 14 RoutingScenario.node[0].lo[0].lo passedUpPk:vector(packetBytes) ETV
attr interpolationmode none
attr recordingmode vector(packetBytes)
attr source packetSentToUpper
attr title "packets passed to higher layer, packetBytes"
vector 15 RoutingScenario.node[0].udp packetReceived:vector(packetBytes) ETV
attr interpolationmode none
attr recordingmode vector(packetBytes)
attr source packetReceived
attr title "packets received, packetBytes"
vector 16 RoutingScenario.node[1].wlan[0].mac.dcf frameSequenceActive:vector ETV
attr autoWarmupFilter false
attr interpolationmode sample-hold
attr recordingmode vector
attr source warmup(count(frameSequenceStarted)-count(frameSequenceFinished))
attr title "frame sequence active"
vector 17 RoutingScenario.node[1].wlan[0].mac.dcf.channelAccess.inProgressFrames queueLength:vector ETV
attr autoWarmupFilter false
attr interpolationmode sample-hold
attr recordingmode vector
attr source "warmup(count(packetEnqueued) - count(packetDequeued))"
attr title "queue length"
vector 18 RoutingScenario.node[1].wlan[0].mac.dcf.channelAccess.contention backoffActive:vector ETV
attr autoWarmupFilter false
attr interpolationmode sample-hold
attr recordingmode vector
attr source warmup(count(backoffStarted)-count(backoffStopped))
attr title "backoff active"
vector 19 RoutingScenario.node[1].udp passedUpPk:vector(count) ETV
attr interpolationmode none
attr recordingmode vector(count)
attr source packetSentToUpper
attr title "packets passed up, count"
vector 20 RoutingScenario.node[1].udp droppedPkWrongPort:vector(count) ETV
attr interpolationmode none
attr recordingmode vector(count)
attr source packetDropReasonIsNoPortFound(packetDropped)
attr title "packets dropped (wrong port), count"
vector 21 RoutingScenario.node[1].udp droppedPkBadChecksum:vector(count) ETV
attr interpolationmode none
attr recordingmode vector(count)
attr source packetDropReasonIsIncorrectlyReceived(packetDropped)
attr title "packets dropped (checksum error), count"
vector 22 RoutingScenario.node[1].wlan[0].radio radioMode:vector ETV
attr interpolationmode sample-hold
attr recordingmode vector
attr source radioModeChanged
attr title "Radio mode"
vector 23 RoutingScenario.node[1].wlan[0].radio radioChannel:vector ETV
attr interpolationmode sample-hold
attr recordingmode vector
attr source radioChannelChanged
attr title "Radio channel"
vector 24 RoutingScenario.node[1].wlan[0].radio receptionState:vector ETV
attr interpolationmode sample-hold
attr recordingmode vector
attr source receptionStateChanged
attr title "Radio reception state"
vector 25 RoutingScenario.node[1].wlan[0].mac.dcf.channelAccess.contention stateChanged:vector ETV
attr enum IDLE,DEFER,IFS_AND_BACKOFF
attr interpolationmode none
attr recordingmode vector
attr title "contention state changed"
attr type enum
vector 26 RoutingScenario.node[1].wlan[0].mac.dcf.recoveryProcedure contentionWindowChanged:vector ETV
attr interpolationmode sample-hold
attr recordingmode vector
attr title "contention window"
vector 27 RoutingScenario.node[1].app[0] packetSent:vector(packetBytes) ETV
attr interpolationmode none
attr recordingmode vector(packetBytes)
attr source packetSent
attr title "packets sent, packetBytes"
vector 28 RoutingScenario.node[1].udp packetSent:vector(packetBytes) ETV
attr interpolationmode none
attr recordingmode vector(packetBytes)
attr source packetSent
attr title "packets sent, packetBytes"
vector 29 RoutingScenario.node[1].wlan[0].mac packetReceivedFromUpper:vector(packetBytes) ETV
attr interpolationmode none
attr recordingmode vector(packetBytes)
attr title "packets received from upper layer, packetBytes"
vector 30 RoutingScenario.node[1].wlan[0].mac.dcf.channelAccess.pendingQueue incomingPacketLengths:vector ETV
attr interpolationmode none
attr recordingmode vector
attr source packetLength(packetPushStarted)
attr title "incoming packet lengths"
attr unit b
vector 31 RoutingScenario.node[1].wlan[0].mac.dcf.channelAccess.pendingQueue queueLength:vector ETV
attr autoWarmupFilter false
attr interpolationmode sample-hold
attr recordingmode vector
attr source "warmup(atomic(constant0(packetPushEnded) + count(packetPushStarted) - count(packetPulled) - count(packetRemoved) - count(packetDropped)))"
attr title "queue length"
attr unit pk
vector 32 RoutingScenario.node[1].wlan[0].mac.dcf.channelAccess.pendingQueue queueBitLength:vector ETV
attr autoWarmupFilter false
attr interpolationmode sample-hold
attr recordingmode vector
attr source "warmup(atomic(constant0(packetPushEnded) + sum(packetLength(packetPushStarted)) - sum(packetLength(packetPulled)) - sum(packetLength(packetRemoved)) - sum(packetLength(packetDropped))))"
attr title "queue bit length"
attr unit b
vector 33 RoutingScenario.node[1].wlan[0].mac.dcf.channelAccess.contention backoffPeriodGenerated:vector ETV
attr interpolationmode none
attr recordingmode vector
attr title "backoff periods"
vector 34 RoutingScenario.node[1].wlan[0].mac.dcf.channelAccess.pendingQueue queueingTime:vector ETV
attr interpolationmode none
attr recordingmode vector
attr source queueingTime(packetPulled)
attr title "queueing times"
attr unit s
vector 35 RoutingScenario.node[1].wlan[0].mac.dcf.channelAccess.pendingQueue outgoingPacketLengths:vector ETV
attr interpolationmode none
attr recordingmode vector
attr source packetLength(packetPulled)
attr title "outgoing packet lengths"
attr unit b
vector 36 RoutingScenario.node[1].wlan[0].mac.dcf datarateSelected:vector ETV
attr interpolationmode none
attr recordingmode vector
attr title "datarates selected"
vector 37 RoutingScenario.node[1].wlan[0].mac packetSentToLower:vector(packetBytes) ETV
attr interpolationmode none
attr recordingmode vector(packetBytes)
attr title "packets sent to lower layer, packetBytes"
vector 38 RoutingScenario.node[1].wlan[0].radio transmissionState:vector ETV
attr interpolationmode sample-hold
attr recordingmode vector
attr source transmissionStateChanged
attr title "Radio transmission state"
vector 39 RoutingScenario.node[1].wlan[0].mac.dcf packetSentToPeer:vector(packetBytes) ETV
attr interpolationmode none
attr recordingmode vector(packetBytes)
attr title "packets sent, packetBytes"
vector 40 RoutingScenario.node[1].wlan[0].mac.dcf packetSentToPeerMulticast:vector(packetBytes) ETV
attr interpolationmode none
attr recordingmode vector(packetBytes)
attr source ieee80211Multicast(packetSentToPeer)
attr title "packets sent: multicast, packetBytes"
vector 41 RoutingScenario.node[1].wlan[0].mac.dcf packetSentToPeerBroadcast:vector(packetBytes) ETV
attr interpolationmode none
attr recordingmode vector(packetBytes)
attr source ieee80211Broadcast(packetSentToPeer)
attr title "packets sent: broadcast , packetBytes"
vector 42 RoutingScenario.node[1].wlan[0].mac.dcf packetSentToPeerWithoutRetry:vector(packetBytes) ETV
attr interpolationmode none
attr recordingmode vector(packetBytes)
attr source ieee80211NotRetry(packetSentToPeer)
attr title "packets sent: without retry, packetBytes"
vector 43 RoutingScenario.node[1].wlan[0].mac.dcf.channelAccess.inProgressFrames queueingTime:vector ETV
attr interpolationmode none
attr recordingmode vector
attr source queueingTime(packetDequeued)
attr title "queueing times"
vector 44 RoutingScenario.node[0].wlan[0].mac packetReceivedFromLower:vector(packetBytes) ETV
attr interpolationmode none
attr recordingmode vector(packetBytes)
attr title "packets received from lower layer, packetBytes"
vector 45 RoutingScenario.node[0].wlan[0].mac.dcf packetReceivedFromPeer:vector(packetBytes) ETV
attr interpolationmode none
attr recordingmode vector(packetBytes)
attr title "packets received, packetBytes"
vector 46 RoutingScenario.node[0].wlan[0].mac.dcf packetReceivedFromPeerMulticast:vector(packetBytes) ETV
attr interpolationmode none
attr recordingmode vector(packetBytes)
attr source ieee80211Multicast(packetReceivedFromPeer)
attr title "packets received: multicast, packetBytes"
vector 47 RoutingScenario.node[0].wlan[0].mac.dcf packetReceivedFromPeerBroadcast:vector(packetBytes) ETV
attr interpolationmode none
attr recordingmode vector(packetBytes)
attr source ieee80211Broadcast(packetReceivedFromPeer)
attr title "packets received: broadcast, packetBytes"
vector 48 RoutingScenario.node[0].wlan[0].mac.dcf packetReceivedFromPeerWithoutRetry:vector(packetBytes) ETV
attr interpolationmode none
attr recordingmode vector(packetBytes)
attr source ieee80211NotRetry(packetReceivedFromPeer)
attr title "packets received: without retry, packetBytes"
vector 49 RoutingScenario.node[0].wlan[0].mac packetSentToUpper:vector(packetBytes) ETV
attr interpolationmode none
attr recordingmode vector(packetBytes)
attr title "packets sent to upper layer, packetBytes"
vector 50 RoutingScenario.node[0].ipv4.arp arpRequestSent:vector(packetBytes) ETV
attr recordingmode vector(packetBytes)
attr source arpRequestSent
attr title "ARP request sent, packetBytes"
vector 51 RoutingScenario.node[0].wlan[0].mac packetReceivedFromUpper:vector(packetBytes) ETV
attr interpolationmode none
attr recordingmode vector(packetBytes)
attr title "packets received from upper layer, packetBytes"
vector 52 RoutingScenario.node[0].wlan[0].mac.dcf.channelAccess.pendingQueue incomingPacketLengths:vector ETV
attr interpolationmode none
attr recordingmode vector
attr source packetLength(packetPushStarted)
attr title "incoming packet lengths"
attr unit b
vector 53 RoutingScenario.node[0].wlan[0].mac.dcf.channelAccess.pendingQueue incomingDataRate:vector ETV
attr interpolationmode linear
attr recordingmode vector
attr source throughput(packetPushStarted)
attr title "incoming datarate"
attr unit bps
vector 54 RoutingScenario.node[0].wlan[0].mac.dcf.channelAccess.pendingQueue queueLength:vector ETV
attr autoWarmupFilter false
attr interpolationmode sample-hold
attr recordingmode vector
attr source "warmup(atomic(constant0(packetPushEnded) + count(packetPushStarted) - count(packetPulled) - count(packetRemoved) - count(packetDropped)))"
attr title "queue length"
attr unit pk
vector 55 RoutingScenario.node[0].wlan[0].mac.dcf.channelAccess.pendingQueue queueBitLength:vector ETV
attr autoWarmupFilter false
attr interpolationmode sample-hold
attr recordingmode vector
attr source "warmup(atomic(constant0(packetPushEnded) + sum(packetLength(packetPushStarted)) - sum(packetLength(packetPulled)) - sum(packetLength(packetRemoved)) - sum(packetLength(packetDropped))))"
attr title "queue bit length"
attr unit b
vector 56 RoutingScenario.node[0].wlan[0].mac.dcf.channelAccess.contention backoffPeriodGenerated:vector ETV
attr interpolationmode none
attr recordingmode vector
attr title "backoff periods"
vector 57 RoutingScenario.node[0].wlan[0].mac.dcf.channelAccess.pendingQueue queueingTime:vector ETV
attr interpolationmode none
attr recordingmode vector
attr source queueingTime(packetPulled)
attr title "queueing times"
attr unit s
vector 58 RoutingScenario.node[0].wlan[0].mac.dcf.channelAccess.pendingQueue outgoingPacketLengths:vector ETV
attr interpolationmode none
attr recordingmode vector
attr source packetLength(packetPulled)
attr title "outgoing packet lengths"
attr unit b
vector 59 RoutingScenario.node[0].wlan[0].mac.dcf.channelAccess.pendingQueue outgoingDataRate:vector ETV
attr interpolationmode linear
attr recordingmode vector
attr source throughput(packetPulled)
attr title "outgoing datarate"
attr unit bps
vector 60 RoutingScenario.node[0].wlan[0].mac.dcf datarateSelected:vector ETV
attr interpolationmode none
attr recordingmode vector
attr title "datarates selected"
vector 61 RoutingScenario.node[0].wlan[0].mac packetSentToLower:vector(packetBytes) ETV
attr interpolationmode none
attr recordingmode vector(packetBytes)
attr title "packets sent to lower layer, packetBytes"
vector 62 RoutingScenario.node[0].wlan[0].radio transmissionState:vector ETV
attr interpolationmode sample-hold
attr recordingmode vector
attr source transmissionStateChanged
attr title "Radio transmission state"
vector 63 RoutingScenario.node[0].wlan[0].mac.dcf packetSentToPeer:vector(packetBytes) ETV
attr interpolationmode none
attr recordingmode vector(packetBytes)
attr title "packets sent, packetBytes"
vector 64 RoutingScenario.node[0].wlan[0].mac.dcf packetSentToPeerMulticast:vector(packetBytes) ETV
attr interpolationmode none
attr recordingmode vector(packetBytes)
attr source ieee80211Multicast(packetSentToPeer)
attr title "packets sent: multicast, packetBytes"
vector 65 RoutingScenario.node[0].wlan[0].mac.dcf packetSentToPeerBroadcast:vector(packetBytes) ETV
attr interpolationmode none
attr recordingmode vector(packetBytes)
attr source ieee80211Broadcast(packetSentToPeer)
attr title "packets sent: broadcast , packetBytes"
vector 66 RoutingScenario.node[0].wlan[0].mac.dcf packetSentToPeerWithoutRetry:vector(packetBytes) ETV
attr interpolationmode none
attr recordingmode vector(packetBytes)
attr source ieee80211NotRetry(packetSentToPeer)
attr title "packets sent: without retry, packetBytes"
vector 67 RoutingScenario.node[0].wlan[0].mac.dcf.channelAccess.inProgressFrames queueingTime:vector ETV
attr interpolationmode none
attr recordingmode vector
attr source queueingTime(packetDequeued)
attr title "queueing times"
vector 68 RoutingScenario.node[1].wlan[0].mac packetReceivedFromLower:vector(packetBytes) ETV
attr interpolationmode none
attr recordingmode vector(packetBytes)
attr title "packets received from lower layer, packetBytes"
vector 69 RoutingScenario.node[1].wlan[0].mac.dcf packetReceivedFromPeer:vector(packetBytes) ETV
attr interpolationmode none
attr recordingmode vector(packetBytes)
attr title "packets received, packetBytes"
vector 70 RoutingScenario.node[1].wlan[0].mac.dcf packetReceivedFromPeerMulticast:vector(packetBytes) ETV
attr interpolationmode none
attr recordingmode vector(packetBytes)
attr source ieee80211Multicast(packetReceivedFromPeer)
attr title "packets received: multicast, packetBytes"
vector 71 RoutingScenario.node[1].wlan[0].mac.dcf packetReceivedFromPeerBroadcast:vector(packetBytes) ETV
attr interpolationmode none
attr recordingmode vector(packetBytes)
attr source ieee80211Broadcast(packetReceivedFromPeer)
attr title "packets received: broadcast, packetBytes"
vector 72 RoutingScenario.node[1].wlan[0].mac.dcf packetReceivedFromPeerWithoutRetry:vector(packetBytes) ETV
attr interpolationmode none
attr recordingmode vector(packetBytes)
attr source ieee80211NotRetry(packetReceivedFromPeer)
attr title "packets received: without retry, packetBytes"
vector 73 RoutingScenario.node[1].wlan[0].mac packetSentToUpper:vector(packetBytes) ETV
attr interpolationmode none
attr recordingmode vector(packetBytes)
attr title "packets sent to upper layer, packetBytes"
vector 74 RoutingScenario.node[1].ipv4.arp arpReplySent:vector(packetBytes) ETV
attr recordingmode vector(packetBytes)
attr source arpReplySent
attr title "ARP replies sent, packetBytes"
vector 75 RoutingScenario.node[1].wlan[0].mac.dcf packetSentToPeerUnicast:vector(packetBytes) ETV
attr interpolationmode none
attr recordingmode vector(packetBytes)
attr source ieee80211Unicast(packetSentToPeer)
attr title "packets sent: unicast, packetBytes"
vector 76 RoutingScenario.node[1].wlan[0].mac.rx nav:vector ETV
attr interpolationmode linear
attr recordingmode vector
attr source navChanged
attr title "network allocation vector"
vector 77 RoutingScenario.node[0].wlan[0].mac.dcf packetReceivedFromPeerUnicast:vector(packetBytes) ETV
attr interpolationmode none
attr recordingmode vector(packetBytes)
attr source ieee80211Unicast(packetReceivedFromPeer)
attr title "packets received: unicast, packetBytes"
vector 78 RoutingScenario.node[0].wlan[0].mac.dcf packetSentToPeerUnicast:vector(packetBytes) ETV
attr interpolationmode none
attr recordingmode vector(packetBytes)
attr source ieee80211Unicast(packetSentToPeer)
attr title "packets sent: unicast, packetBytes"
vector 79 RoutingScenario.node[1].wlan[0].mac.dcf packetReceivedFromPeerUnicast:vector(packetBytes) ETV
attr interpolationmode none
attr recordingmode vector(packetBytes)
attr source ieee80211Unicast(packetReceivedFromPeer)
attr title "packets received: unicast, packetBytes"
vector 80 RoutingScenario.node[0].wlan[0].mac.rx nav:vector ETV
attr interpolationmode linear
attr recordingmode vector
attr source navChanged
attr title "network allocation vector"
vector 81 RoutingScenario.node[1].udp packetReceived:vector(packetBytes) ETV
attr interpolationmode none
attr recordingmode vector(packetBytes)
attr source packetReceived
attr title "packets received, packetBytes"
vector 82 RoutingScenario.node[1].wlan[0].mac.dcf.channelAccess.pendingQueue incomingDataRate:vector ETV
attr interpolationmode linear
attr recordingmode vector
attr source throughput(packetPushStarted)
attr title "incoming datarate"
attr unit bps
vector 83 RoutingScenario.node[1].wlan[0].mac.dcf.channelAccess.pendingQueue outgoingDataRate:vector ETV
attr interpolationmode linear
attr recordingmode vector
attr source throughput(packetPulled)
attr title "outgoing datarate"
attr unit bps
0	2	0.1	0
0	2	0.1	0
0	2646	5.104221260142	1
0	2650	5.104309260142	0
0	2684	5.104783436042	1
0	2708	5.104967611942	0
0	2758	5.107081787842	1
0	2779	5.107273963742	0
0	2781	5.107526963742	1
0	2802	5.107719139642	0
0	2847	5.119336782382	1
0	2868	5.119528958282	0
0	2899	5.128064313258	1
0	2920	5.128256489158	0
0	2955	5.1376810696	1
0	2977	5.1378732455	0
0	3027	5.152472656147	1
0	3048	5.152664832047	0
0	3102	5.183472569893	1
0	3123	5.183664745793	0
0	3177	5.234437762196	1
0	3198	5.23462994359	0
0	3229	5.237841671341	1
0	3250	5.238033852735	0
0	3289	5.273865290607	1
0	3310	5.274057472001	0
0	3351	5.288092519367	1
0	3372	5.288284700761	0
0	3426	5.313604951372	1
0	3447	5.313797139308	0
0	3500	5.33027346033	1
0	3521	5.330465648266	0
0	3552	5.333453099927	1
0	3573	5.333645287863	0
0	3618	5.367781204101	1
0	3639	5.367973392037	0
0	3687	5.401480148126	1
0	3708	5.401672342592	0
0	3791	5.463805701202	1
0	3812	5.463997895668	0
0	3866	5.504942185166	1
0	3887	5.50513438614	0
0	3918	5.511194520819	1
0	3939	5.511386721793	0
0	3973	5.515076249378	1
0	3995	5.515268450352	0
0	4028	5.521227476737	1
0	4051	5.521419677711	0
0	4086	5.529699868594	1
0	4107	5.529892069568	0
0	4148	5.535276240717	1
0	4169	5.535468441691	0
0	4204	5.540144956843	1
0	4225	5.540337157817	0
0	4294	5.563938707806	1
0	4315	5.56413090878	0
0	4356	5.58022509369	1
0	4377	5.580417294664	0
0	4408	5.58293789975	1
0	4429	5.583130100724	0
0	4474	5.596484024953	1
0	4495	5.596676225927	0
0	4533	5.600367152436	1
0	4554	5.600559359908	0
0	4599	5.615326593774	1
0	4620	5.615518801246	0
0	4691	5.645865311697	1
0	4712	5.646057519169	0
0	4749	5.6474318625	1
0	4770	5.647624069972	0
0	4820	5.660651194536	1
0	4841	5.660843402008	0
0	4867	5.662046402008	1
0	4888	5.66223860948	0
0	4924	5.667977225942	1
0	4945	5.668169433414	0
0	4971	5.669307433414	1
0	4992	5.669499640886	0
0	5037	5.675296517293	1
0	5058	5.675488724765	0
0	5119	5.693955395901	1
0	5140	5.694147603373	0
0	5171	5.695324603373	1
0	5192	5.695516810845	0
0	5224	5.701436540848	1
0	5245	5.701628754848	0
0	5300	5.727648786214	1
0	5321	5.727841000214	0
0	5356	5.75224541602	1
0	5377	5.75243763002	0
0	5418	5.78292462862	1
0	5439	5.78311684262	0
0	5486	5.804141871717	1
0	5507	5.804334092247	0
0	5533	5.805459092247	1
0	5554	5.805651312777	0
0	5585	5.809330391943	1
0	5606	5.809522612473	0
0	5637	5.813467986975	1
0	5658	5.813660207505	0
0	5711	5.839649781861	1
0	5732	5.839842002391	0
0	5763	5.841680315419	1
0	5784	5.841872535949	0
0	5821	5.848760790475	1
0	5842	5.848953011005	0
0	5886	5.852067427397	1
0	5907	5.852259647927	0
0	5933	5.853436647927	1
0	5954	5.853628868457	0
0	5995	5.860611918851	1
0	6016	5.860804139381	0
0	6059	5.873893141734	1
0	6080	5.874085362264	0
0	6111	5.878236707587	1
0	6132	5.878428928117	0
0	6163	5.883607268002	1
0	6186	5.883799488532	0
0	6235	5.889296781267	1
0	6256	5.889489001797	0
0	6297	5.894261530226	1
0	6318	5.894453750756	0
0	6354	5.901989462203	1
0	6375	5.902181689243	0
0	6416	5.905192676919	1
1	2	0.1	0
1	2	0.1	0
1	2646	5.104221260142	1
1	2650	5.104309260142	0
1	2684	5.104783436042	1
1	2708	5.104967611942	0
1	2758	5.107081787842	1
1	2758	5.107081787842	2
1	2779	5.107273963742	1
1	2802	5.107719139642	0
1	2847	5.119336782382	1
1	2868	5.119528958282	0
1	2899	5.128064313258	1
1	2920	5.128256489158	0
1	2955	5.1376810696	1
1	2977	5.1378732455	0
1	3027	5.152472656147	1
1	3048	5.152664832047	0
1	3102	5.183472569893	1
1	3123	5.183664745793	0
1	3177	5.234437762196	1
1	3198	5.23462994359	0
1	3229	5.237841671341	1
1	3250	5.238033852735	0
1	3289	5.273865290607	1
1	3310	5.274057472001	0
1	3351	5.288092519367	1
1	3372	5.288284700761	0
1	3426	5.313604951372	1
1	3447	5.313797139308	0
1	3500	5.33027346033	1
1	3521	5.330465648266	0
1	3552	5.333453099927	1
1	3573	5.333645287863	0
1	3618	5.367781204101	1
1	3639	5.367973392037	0
1	3687	5.401480148126	1
1	3708	5.401672342592	0
1	3791	5.463805701202	1
1	3812	5.463997895668	0
1	3866	5.504942185166	1
1	3887	5.50513438614	0
1	3918	5.511194520819	1
1	3939	5.511386721793	0
1	3973	5.515076249378	1
1	3995	5.515268450352	0
1	4028	5.521227476737	1
1	4051	5.521419677711	0
1	4086	5.529699868594	1
1	4107	5.529892069568	0
1	4148	5.535276240717	1
1	4169	5.535468441691	0
1	4204	5.540144956843	1
1	4225	5.540337157817	0
1	4294	5.563938707806	1
1	4315	5.56413090878	0
1	4356	5.58022509369	1
1	4377	5.580417294664	0
1	4408	5.58293789975	1
1	4429	5.583130100724	0
1	4474	5.596484024953	1
1	4495	5.596676225927	0
1	4533	5.600367152436	1
1	4554	5.600559359908	0
1	4599	5.615326593774	1
1	4620	5.615518801246	0
1	4691	5.645865311697	1
1	4712	5.646057519169	0
1	4749	5.6474318625	1
1	4770	5.647624069972	0
1	4820	5.660651194536	1
1	4841	5.660843402008	0
1	4867	5.662046402008	1
1	4888	5.66223860948	0
1	4924	5.667977225942	1
1	4945	5.668169433414	0
1	4971	5.669307433414	1
1	4992	5.669499640886	0
1	5037	5.675296517293	1
1	5058	5.675488724765	0
1	5119	5.693955395901	1
1	5140	5.694147603373	0
1	5171	5.695324603373	1
1	5192	5.695516810845	0
1	5224	5.701436540848	1
1	5245	5.701628754848	0
1	5300	5.727648786214	1
1	5321	5.727841000214	0
1	5356	5.75224541602	1
1	5377	5.75243763002	0
1	5418	5.78292462862	1
1	5439	5.78311684262	0
1	5486	5.804141871717	1
1	5507	5.804334092247	0
1	5533	5.805459092247	1
1	5554	5.805651312777	0
1	5585	5.809330391943	1
1	5606	5.809522612473	0
1	5637	5.813467986975	1
1	5658	5.813660207505	0
1	5711	5.839649781861	1
1	5732	5.839842002391	0
1	5763	5.841680315419	1
1	5784	5.841872535949	0
1	5821	5.848760790475	1
1	5842	5.848953011005	0
1	5886	5.852067427397	1
1	5907	5.852259647927	0
1	5933	5.853436647927	1
1	5954	5.853628868457	0
1	5995	5.860611918851	1
1	6016	5.860804139381	0
1	6059	5.873893141734	1
1	6080	5.874085362264	0
1	6111	5.878236707587	1
1	6132	5.878428928117	0
1	6163	5.883607268002	1
1	6186	5.883799488532	0
1	6235	5.889296781267	1
1	6256	5.889489001797	0
1	6297	5.894261530226	1
1	6318	5.894453750756	0
1	6354	5.901989462203	1
1	6375	5.902181689243	0
1	6416	5.905192676919	1
2	2	0.1	0
2	2	0.1	0
2	2644	5.104020260142	1
2	2645	5.104221260142	0
2	2673	5.104533436042	1
2	2675	5.104565436042	0
2	2680	5.104621436042	1
2	2683	5.104783436042	0
2	2723	5.105868611942	1
2	2725	5.105900611942	0
2	2730	5.105956611942	1
2	2737	5.106079787842	0
2	2740	5.106831787842	1
2	2749	5.106863787842	0
2	2754	5.106919787842	1
2	2757	5.107081787842	0
2	2779	5.107273963742	1
2	2780	5.107526963742	0
2	2836	5.119060782382	1
2	2838	5.119092782382	0
2	2843	5.119148782382	1
2	2846	5.119336782382	0
2	2888	5.127801313258	1
2	2890	5.127833313258	0
2	2895	5.127889313258	1
2	2898	5.128064313258	0
2	2944	5.1375090696	1
2	2946	5.1375410696	0
2	2951	5.1375970696	1
2	2954	5.1376810696	0
2	3016	5.152222656147	1
2	3018	5.152254656147	0
2	3023	5.152310656147	1
2	3026	5.152472656147	0
2	3091	5.183300569893	1
2	3093	5.183332569893	0
2	3098	5.183388569893	1
2	3101	5.183472569893	0
2	3166	5.234096762196	1
2	3168	5.234128762196	0
2	3173	5.234184762196	1
2	3176	5.234437762196	0
2	3218	5.237539671341	1
2	3220	5.237571671341	0
2	3225	5.237627671341	1
2	3228	5.237841671341	0
2	3278	5.273719290607	1
2	3280	5.273751290607	0
2	3285	5.273807290607	1
2	3288	5.273865290607	0
2	3340	5.287764519367	1
2	3342	5.287796519367	0
2	3347	5.287852519367	1
2	3350	5.288092519367	0
2	3409	5.313380951372	1
2	3417	5.313412951372	0
2	3422	5.313468951372	1
2	3425	5.313604951372	0
2	3489	5.32995846033	1
2	3491	5.32999046033	0
2	3496	5.33004646033	1
2	3499	5.33027346033	0
2	3541	5.333216099927	1
2	3543	5.333248099927	0
2	3548	5.333304099927	1
2	3551	5.333453099927	0
2	3607	5.367505204101	1
2	3609	5.367537204101	0
2	3614	5.367593204101	1
2	3617	5.367781204101	0
2	3676	5.401308148126	1
2	3678	5.401340148126	0
2	3683	5.401396148126	1
2	3686	5.401480148126	0
2	3780	5.463529701202	1
2	3782	5.463561701202	0
2	3787	5.463617701202	1
2	3790	5.463805701202	0
2	3855	5.504757185166	1
2	3857	5.504789185166	0
2	3862	5.504845185166	1
2	3865	5.504942185166	0
2	3907	5.511022520819	1
2	3909	5.511054520819	0
2	3914	5.511110520819	1
2	3917	5.511194520819	0
2	3960	5.514826249378	1
2	3963	5.514858249378	0
2	3968	5.514914249378	1
2	3972	5.515076249378	0
2	4015	5.520990476737	1