version 3
run General-0-20230317-19:43:50-4587
attr configname General
attr datetime 20230317-19:43:50
attr datetimef 20230317-194350
attr experiment General
attr inifile omnetpp.ini
attr iterationvars ""
attr iterationvarsd ""
attr iterationvarsf ""
attr measurement ""
attr network WirelessNetwork
attr processid 4587
attr repetition 0
attr replication #0
attr resultdir results
attr runnumber 0
attr seedset 0
config image-path ../../../simu5g-workspace/inet4.4/images:../../../simu5g-workspace/veins-veins-5.2/images
config description "Simple sim where two host communicate wirelessly"
config network WirelessNetwork
config sim-time-limit 60s
config *.host*.ipv4.arp.typename GlobalArp
config *.hostA.numApps 1
config *.hostA.app[0].typename UdpBasicApp
config *.hostA.app[0].destAddresses "\"hostB\""
config *.hostA.app[0].destPort 5000
config *.hostA.app[0].messageLength 1000B
config *.hostA.app[0].sendInterval exponential(12ms)
config *.hostA.app[0].packetName "\"UDPData\""
config *.hostB.numApps 1
config *.hostB.app[0].typename UdpSink
config *.hostB.app[0].localPort 5000
config *.host*.wlan[0].typename AckingWirelessInterface
config *.host*.wlan[0].mac.useAck false
config *.host*.wlan[0].mac.fullDuplex false
config *.host*.wlan[0].radio.transmitter.communicationRange 500m
config *.host*.wlan[0].radio.receiver.ignoreInterference true
config *.host*.wlan[0].mac.headerLength 23B
config *.host*.**.bitrate 1Mbps
config **.radio.displayCommunicationRange true
config *.visualizer.mediumVisualizer.displaySignals true
config *.visualizer.physicalLinkVisualizer.displayLinks true
config *.visualizer.physicalLinkVisualizer.packetFilter "\"UDPData*\""
config *.visualizer.mobilityVisualizer.displayVelocities true
config *.visualizer.mobilityVisualizer.displayMovementTrails true
config *.hostA.mobility.typename LinearMobility
config *.hostA.mobility.speed 12mps
config *.hostA.mobility.initialMovementHeading 200deg

vector 0 WirelessNetwork.hostA.udp passedUpPk:vector(count) ETV
attr interpolationmode none
attr recordingmode vector(count)
attr source packetSentToUpper
attr title "packets passed up, count"
vector 1 WirelessNetwork.hostA.udp droppedPkWrongPort:vector(count) ETV
attr interpolationmode none
attr recordingmode vector(count)
attr source packetDropReasonIsNoPortFound(packetDropped)
attr title "packets dropped (wrong port), count"
vector 2 WirelessNetwork.hostA.udp droppedPkBadChecksum:vector(count) ETV
attr interpolationmode none
attr recordingmode vector(count)
attr source packetDropReasonIsIncorrectlyReceived(packetDropped)
attr title "packets dropped (checksum error), count"
vector 3 WirelessNetwork.hostB.udp passedUpPk:vector(count) ETV
attr interpolationmode none
attr recordingmode vector(count)
attr source packetSentToUpper
attr title "packets passed up, count"
vector 4 WirelessNetwork.hostB.udp droppedPkWrongPort:vector(count) ETV
attr interpolationmode none
attr recordingmode vector(count)
attr source packetDropReasonIsNoPortFound(packetDropped)
attr title "packets dropped (wrong port), count"
vector 5 WirelessNetwork.hostB.udp droppedPkBadChecksum:vector(count) ETV
attr interpolationmode none
attr recordingmode vector(count)
attr source packetDropReasonIsIncorrectlyReceived(packetDropped)
attr title "packets dropped (checksum error), count"
vector 6 WirelessNetwork.hostA.wlan[0].radio radioMode:vector ETV
attr interpolationmode sample-hold
attr recordingmode vector
attr source radioModeChanged
attr title "Radio mode"
vector 7 WirelessNetwork.hostB.wlan[0].radio radioMode:vector ETV
attr interpolationmode sample-hold
attr recordingmode vector
attr source radioModeChanged
attr title "Radio mode"
vector 8 WirelessNetwork.hostA.wlan[0].radio receptionState:vector ETV
attr interpolationmode sample-hold
attr recordingmode vector
attr source receptionStateChanged
attr title "Radio reception state"
vector 9 WirelessNetwork.hostB.wlan[0].radio receptionState:vector ETV
attr interpolationmode sample-hold
attr recordingmode vector
attr source receptionStateChanged
attr title "Radio reception state"
vector 10 WirelessNetwork.hostA.app[0] packetSent:vector(packetBytes) ETV
attr interpolationmode none
attr recordingmode vector(packetBytes)
attr source packetSent
attr title "packets sent, packetBytes"
vector 11 WirelessNetwork.hostA.udp packetSent:vector(packetBytes) ETV
attr interpolationmode none
attr recordingmode vector(packetBytes)
attr source packetSent
attr title "packets sent, packetBytes"
vector 12 WirelessNetwork.hostA.wlan[0].queue incomingPacketLengths:vector ETV
attr interpolationmode none
attr recordingmode vector
attr source packetLength(packetPushStarted)
attr title "incoming packet lengths"
attr unit b
vector 13 WirelessNetwork.hostA.wlan[0].queue queueingTime:vector ETV
attr interpolationmode none
attr recordingmode vector
attr source queueingTime(packetPulled)
attr title "queueing times"
attr unit s
vector 14 WirelessNetwork.hostA.wlan[0].queue outgoingPacketLengths:vector ETV
attr interpolationmode none
attr recordingmode vector
attr source packetLength(packetPulled)
attr title "outgoing packet lengths"
attr unit b
vector 15 WirelessNetwork.hostA.wlan[0].radio transmissionState:vector ETV
attr interpolationmode sample-hold
attr recordingmode vector
attr source transmissionStateChanged
attr title "Radio transmission state"
vector 16 WirelessNetwork.hostA.wlan[0].mac sentDownPk:vector(packetBytes) ETV
attr interpolationmode none
attr recordingmode vector(packetBytes)
attr source packetSentToLower
attr title "packets sent to lower layer, packetBytes"
vector 17 WirelessNetwork.hostA.wlan[0].queue queueLength:vector ETV
attr autoWarmupFilter false
attr interpolationmode sample-hold
attr recordingmode vector
attr source "warmup(atomic(constant0(packetPushEnded) + count(packetPushStarted) - count(packetPulled) - count(packetRemoved) - count(packetDropped)))"
attr title "queue length"
attr unit pk
vector 18 WirelessNetwork.hostA.wlan[0].queue queueBitLength:vector ETV
attr autoWarmupFilter false
attr interpolationmode sample-hold
attr recordingmode vector
attr source "warmup(atomic(constant0(packetPushEnded) + sum(packetLength(packetPushStarted)) - sum(packetLength(packetPulled)) - sum(packetLength(packetRemoved)) - sum(packetLength(packetDropped))))"
attr title "queue bit length"
attr unit b
vector 19 WirelessNetwork.hostB.wlan[0].mac rcvdPkFromLl:vector(packetBytes) ETV
attr interpolationmode none
attr recordingmode vector(packetBytes)
attr source packetReceivedFromLower
attr title "packets received from lower layer, packetBytes"
vector 20 WirelessNetwork.hostB.wlan[0].mac passedUpPk:vector(packetBytes) ETV
attr interpolationmode none
attr recordingmode vector(packetBytes)
attr source packetSentToUpper
attr title "packets passed to higher layer, packetBytes"
vector 21 WirelessNetwork.hostB.udp packetReceived:vector(packetBytes) ETV
attr interpolationmode none
attr recordingmode vector(packetBytes)
attr source packetReceived
attr title "packets received, packetBytes"
vector 22 WirelessNetwork.hostB.app[0] packetReceived:vector(packetBytes) ETV
attr interpolationmode none
attr recordingmode vector(packetBytes)
attr source packetReceived
attr title "packets received, packetBytes"
vector 23 WirelessNetwork.hostB.app[0] endToEndDelay:vector ETV
attr interpolationmode none
attr recordingmode vector
attr source dataAge(packetReceived)
attr title "end-to-end delay"
attr unit s
vector 24 WirelessNetwork.hostB.app[0] rcvdPkSeqNo:vector ETV
attr interpolationmode none
attr recordingmode vector
attr source appPkSeqNo(packetReceived)
attr title "received packet sequence number"
vector 25 WirelessNetwork.hostA.wlan[0].queue incomingDataRate:vector ETV
attr interpolationmode linear
attr recordingmode vector
attr source throughput(packetPushStarted)
attr title "incoming datarate"
attr unit bps
vector 26 WirelessNetwork.hostA.wlan[0].queue outgoingDataRate:vector ETV
attr interpolationmode linear
attr recordingmode vector
attr source throughput(packetPulled)
attr title "outgoing datarate"
attr unit bps
vector 27 WirelessNetwork.hostB.app[0] throughput:vector ETV
attr recordingmode vector
attr source throughput(packetReceived)
attr title throughput
attr unit bps
0	0	0	0
1	0	0	0
2	0	0	0
3	0	0	0
3	20	0.030819991897	1
3	27	0.039323992217	2
3	46	0.049890486062	3
3	53	0.058394486382	4
3	67	0.083479010753	5
3	86	0.123257959609	6
3	93	0.131761959929	7
3	107	0.147887939206	8
3	119	0.156920028907	9
3	133	0.166993223521	10
3	159	0.198172273725	11
3	168	0.206676274045	12
3	181	0.215180274365	13
3	190	0.223684274686	14
3	203	0.232188275006	15
3	211	0.240692275326	16
3	225	0.26439857402	17
3	239	0.310541238188	18
3	257	0.329804113599	19
3	264	0.33830811392	20
3	283	0.355429699769	21
3	299	0.36393370009	22
3	308	0.372437700411	23
3	316	0.380941700731	24
3	331	0.405787178975	25
3	348	0.41464110681	26
3	361	0.423145107131	27
3	369	0.431649107452	28
3	388	0.442614318643	29
3	395	0.451118318964	30
3	413	0.460007324844	31
3	426	0.468511325165	32
3	439	0.477015325486	33
3	447	0.485519325807	34
3	460	0.494650056104	35
3	475	0.529185037662	36
3	493	0.542926705637	37
3	505	0.551430705958	38
3	513	0.559934706279	39
3	531	0.569520611056	40
3	544	0.578024611377	41
3	552	0.586528611698	42
3	575	0.59678011453	43
3	592	0.605284114851	44
3	605	0.613788115172	45
3	618	0.622292115493	46
3	627	0.630796115814	47
3	636	0.639300116136	48
3	644	0.647804116457	49
3	671	0.681758698173	50
3	679	0.690262698495	51
3	696	0.698766698816	52
3	714	0.707270699137	53
3	731	0.715774699458	54
3	744	0.72427869978	55
3	761	0.732782700101	56
3	774	0.741286700422	57
3	783	0.749790700744	58
3	800	0.758294701065	59
3	809	0.766798701387	60
3	818	0.775302701708	61
3	835	0.783806702029	62
3	844	0.792310702351	63
3	854	0.800814702672	64
3	863	0.809318702994	65
3	872	0.817822703315	66
3	885	0.826326703637	67
3	898	0.834830703958	68
3	906	0.84333470428	69
3	920	0.88395005947	70
3	933	0.895091801854	71
3	960	0.91122274573	72
3	980	0.919726746052	73
3	997	0.928230746374	74
3	1006	0.936734746696	75
3	1019	0.945238747017	76
3	1032	0.953742747339	77
3	1045	0.962246747661	78
3	1062	0.970750747983	79
3	1075	0.979254748304	80
3	1084	0.987758748626	81
3	1093	0.996262748948	82
3	1103	1.00476674927	83
3	1120	1.013270749592	84
3	1129	1.021774749914	85
3	1146	1.030278750236	86
3	1155	1.038782750558	87
3	1172	1.047286750879	88
3	1185	1.055790751201	89
3	1202	1.064294751523	90
3	1211	1.072798751845	91
3	1228	1.081302752167	92
3	1237	1.089806752489	93
3	1254	1.098310752811	94
3	1264	1.106814753133	95
3	1277	1.115318753455	96
3	1286	1.123822753778	97
3	1295	1.1323267541	98
3	1304	1.140830754422	99
3	1312	1.149334754744	100
3	1331	1.160666451652	101
3	1343	1.169170451974	102
3	1356	1.177674452296	103
3	1364	1.186178452619	104
3	1382	1.195349160438	105
3	1391	1.20385316076	106
3	1410	1.235005581739	107
3	1417	1.243509582061	108
3	1431	1.264598589747	109
3	1449	1.279025453101	110
3	1456	1.287529453424	111
3	1476	1.30343276208	112
3	1483	1.311936762403	113
3	1497	1.335046981005	114
3	1510	1.345493411317	115
3	1523	1.371111377689	116
3	1536	1.385263973429	117
3	1555	1.400766885244	118
3	1562	1.409270885566	119
3	1576	1.446622100806	120
3	1594	1.459015665404	121
3	1601	1.467519665727	122
3	1623	1.476821252527	123
3	1632	1.48532525285	124
3	1649	1.493829253172	125
3	1663	1.502333253495	126
3	1680	1.510837253818	127
3	1693	1.519341254141	128
3	1706	1.527845254463	129
3	1719	1.536349254786	130
3	1728	1.544853255109	131
3	1741	1.553357255432	132
3	1754	1.561861255755	133
3	1763	1.570365256078	134
3	1780	1.578869256401	135
3	1789	1.587373256723	136
3	1797	1.595877257046	137
3	1817	1.61316719968	138
3	1829	1.621671200003	139
3	1837	1.630175200326	140
3	1851	1.652233790275	141
3	1864	1.671924561958	142
3	1882	1.686528796456	143
3	1889	1.695032796779	144
3	1904	1.718027534938	145
3	1917	1.733058825808	146
3	1936	1.814243515133	147
3	1943	1.822747515456	148
3	1962	1.840496862977	149
3	1978	1.8490008633	150
3	1987	1.857504863623	151
3	1995	1.866008863947	152
3	2009	1.878289719557	153
3	2022	1.898050349524	154
3	2045	1.90815292145	155
3	2053	1.916656921773	156
3	2066	1.925160922096	157
3	2079	1.93366492242	158
3	2087	1.942168922743	159
3	2101	1.952248330203	160
3	2114	1.976401603956	161
3	2128	2.020921132753	162
3	2150	2.044160060487	163
3	2158	2.052664060811	164
3	2175	2.061168061134	165
3	2192	2.069672061458	166
3	2209	2.078176061782	167
3	2218	2.086680062105	168
3	2235	2.095184062429	169
3	2249	2.103688062753	170
3	2258	2.112192063077	171
3	2267	2.1206960634	172
3	2276	2.129200063724	173
3	2289	2.137704064048	174
3	2306	2.146208064372	175
3	2319	2.154712064696	176
3	2332	2.163216065019	177
3	2345	2.171720065343	178
3	2358	2.180224065667	179
3	2367	2.188728065991	180
3	2375	2.197232066315	181
3	2390	2.213765579163	182
3	2403	2.225187536089	183
3	2415	2.234392492294	184
3	2429	2.245089035625	185
3	2447	2.26080646068	186
3	2467	2.269310461004	187
3	2476	2.277814461328	188
3	2485	2.286318461652	189
3	2493	2.294822461976	190
3	2508	2.311355068595	191
3	2526	2.327499238409	192
3	2546	2.336003238733	193
3	2559	2.344507239057	194
3	2572	2.353011239381	195
3	2585	2.361515239705	196
3	2610	2.37001924003	197
3	2619	2.378523240354	198
3	2632	2.387027240678	199
3	2645	2.395531241002	200
3	2659	2.404035241326	201
3	2668	2.412539241651	202
3	2677	2.421043241975	203
3	2690	2.429547242299	204
3	2699	2.438051242623	205
3	2708	2.446555242948	206
3	2716	2.455059243272	207
3	2735	2.490803566982	208
3	2747	2.499307567306	209
3	2765	2.507811567631	210
3	2774	2.516315567955	211
3	2791	2.524819568279	212
3	2804	2.533323568604	213
3	2817	2.541827568928	214
3	2826	2.550331569253	215
3	2834	2.558835569577	216
3	2848	2.570174238553	217
3	2861	2.582072290522	218
3	2880	2.606802146356	219
3	2887	2.615306146681	220
3	2906	2.629833676395	221
3	2913	2.63833767672	222
3	2927	2.668936067148	223
3	2945	2.682893427082	224
3	2952	2.691397427406	225
3	2967	2.721139813795	226
3	2989	2.736889910312	227
3	3005	2.745393910637	228
3	3022	2.753897910961	229
3	3035	2.762401911286	230
3	3052	2.770905911611	231
3	3061	2.779409911936	232
3	3074	2.78791391226	233
3	3083	2.796417912585	234
3	3097	2.80492191291	235
3	3110	2.813425913235	236
3	3127	2.82192991356	237
3	3136	2.830433913885	238
3	3153	2.838937914209	239
3	3162	2.847441914534	240
3	3183	2.855945914859	241
3	3196	2.864449915184	242
3	3209	2.872953915509	243
3	3218	2.881457915834	244
3	3227	2.889961916159	245
3	3236	2.898465916484	246
3	3250	2.906969916809	247
3	3259	2.915473917134	248
3	3272	2.923977917459	249
3	3280	2.932481917783	250
3	3293	2.941883087214	251
3	3312	2.969968991815	252
3	3324	2.97847299214	253
3	3337	2.986976992465	254
3	3345	2.99548099279	255
3	3369	3.030415536032	256
3	3385	3.038919536357	257
3	3394	3.047423536682	258
3	3403	3.055927537007	259
3	3416	3.064431537332	260
3	3424	3.072935537658	261
3	3438	3.084466766807	262
3	3457	3.102920712086	263
3	3473	3.111424712412	264
3	3486	3.119928712737	265
3	3495	3.128432713062	266
3	3503	3.136936713387	267
3	3517	3.171785282353	268
3	3535	3.196883962185	269
3	3543	3.20538796251	270
3	3562	3.240943773997	271
3	3569	3.249447774323	272
3	3583	3.279893108948	273
3	3597	3.313932792572	274
3	3610	3.333198298466	275
3	3623	3.345143862644	276
3	3641	3.370029001153	277
3	3648	3.378533001479	278
3	3662	3.396871262203	279
3	3689	3.408415405764	280
3	3697	3.41691940609	281
3	3706	3.425423406415	282
3	3714	3.433927406741	283
3	3733	3.463713145556	284
3	3745	3.472217145882	285
3	3753	3.480721146207	286
3	3776	3.492020281545	287
3	3785	3.500524281871	288
3	3793	3.509028282197	289
3	3812	3.520024079436	290
3	3832	3.528528079762	291
3	3841	3.537032080087	292
3	3850	3.545536080413	293
3	3863	3.554040080739	294
3	3871	3.562544081065	295
3	3886	3.602516758929	296
3	3899	3.641396316022	297
3	3912	3.669840968079	298
3	3934	3.687690125815	299
3	3950	3.696194126141	300
3	3968	3.704698126467	301
3	3985	3.713202126793	302
3	3994	3.721706127119	303
3	4007	3.730210127445	304
3	4028	3.738714127772	305
3	4037	3.747218128098	306
3	4054	3.755722128424	307
3	4067	3.76422612875	308
3	4080	3.772730129076	309
3	4089	3.781234129402	310
3	4098	3.789738129728	311
3	4111	3.798242130054	312
3	4125	3.80674613038	313
3	4146	3.815250130707	314
3	4163	3.823754131033	315
3	4176	3.832258131359	316
3	4185	3.840762131685	317
3	4198	3.849266132011	318
3	4211	3.857770132338	319
3	4228	3.866274132664	320
3	4241	3.87477813299	321
3	4250	3.883282133316	322
3	4267	3.891786133642	323
3	4277	3.900290133969	324
3	4290	3.908794134295	325
3	4299	3.917298134621	326
3	4312	3.925802134948	327
3	4321	3.934306135274	328
3	4338	3.9428101356	329
3	4351	3.951314135927	330
3	4364	3.959818136253	331
3	4381	3.968322136579	332
3	4394	3.976826136906	333
3	4411	3.985330137232	334
3	4420	3.993834137558	335
3	4438	4.002338137885	336
3	4451	4.010842138211	337
3	4464	4.019346138538	338
3	4477	4.027850138864	339
3	4486	4.03635413919	340
3	4495	4.044858139517	341
3	4504	4.053362139843	342
3	4517	4.06186614017	343
3	4526	4.070370140496	344
3	4543	4.078874140823	345
3	4556	4.087378141149	346
3	4569	4.095882141476	347
3	4583	4.104386141802	348
3	4596	4.112890142129	349
3	4613	4.121394142455	350
3	4626	4.129898142782	351
3	4635	4.138402143109	352
3	4644	4.146906143435	353
3	4653	4.155410143762	354
3	4670	4.163914144088	355
3	4679	4.172418144415	356
3	4688	4.180922144741	357
3	4696	4.189426145068	358
3	4709	4.199385730879	359
3	4728	4.208803775475	360
3	4736	4.217307775802	361
3	4755	4.241778631167	362
3	4762	4.250282631494	363
3	4781	4.264597426262	364
3	4788	4.273101426588	365
3	4802	4.298834293109	366
3	4816	4.312889457988	367
3	4834	4.327322023949	368
3	4841	4.335826024276	369
3	4855	4.349052396138	370
3	4877	4.361181626561	371
3	4885	4.369685626888	372
3	4898	4.378189627215	373
3	4906	4.386693627542	374
3	4926	4.424052865016	375
3	4933	4.432556865343	376
3	4946	4.442133827881	377
3	4965	4.465533551722	378
3	4972	4.474037552049	379
3	4987	4.509273555008	380
3	5000	4.519562776635	381
3	5013	4.540191609169	382
3	5026	4.568933767747	383
3	5044	4.589216587985	384
3	5056	4.597720588312	385
3	5074	4.606224588639	386
3	5091	4.614728588966	387
3	5100	4.623232589293	388
3	5109	4.63173658962	389
3	5126	4.640240589947	390
3	5135	4.648744590274	391
3	5143	4.657248590602	392
3	5162	4.681704384661	393
3	5182	4.690208384988	394
3	5195	4.698712385315	395
3	5205	4.707216385642	396
3	5214	4.715720385969	397
3	5222	4.724224386297	398
3	5240	4.732868337848	399
3	5248	4.741372338176	400
3	5262	4.768998567451	401
3	5280	4.793434098638	402
3	5297	4.801938098966	403
3	5306	4.810442099293	404
3	5331	4.81894609962	405
3	5352	4.827450099948	406
3	5377	4.835954100275	407
3	5386	4.844458100602	408
3	5399	4.85296210093	409
3	5408	4.861466101257	410
3	5417	4.869970101585	411
3	5426	4.878474101912	412
3	5435	4.886978102239	413
3	5448	4.895482102567	414
3	5458	4.903986102894	415
3	5467	4.912490103222	416
3	5476	4.920994103549	417
3	5484	4.929498103877	418
3	5507	4.952672128463	419
3	5515	4.961176128791	420
3	5528	4.969680129118	421
3	5541	4.978184129446	422
3	5549	4.986688129773	423
3	5569	5.035998840815	424
3	5576	5.044502841142	425
3	5599	5.055156517885	426
3	5607	5.063660518212	427
3	5624	5.07216451854	428
3	5633	5.080668518867	429
3	5646	5.089172519195	430
3	5659	5.097676519523	431
3	5673	5.10618051985	432
3	5690	5.114684520178	433
3	5699	5.123188520506	434
3	5712	5.131692520833	435
3	5729	5.140196521161	436
3	5738	5.148700521489	437
3	5746	5.157204521817	438
3	5760	5.168942307959	439
3	5783	5.200020222903	440
3	5795	5.20852422323	441
3	5804	5.217028223558	442
3	5817	5.225532223886	443
3	5825	5.234036224214	444
3	5839	5.279947704788	445
3	5853	5.321621974865	446
3	5871	5.349861993171	447
3	5878	5.358365993499	448
3	5902	5.41203984717	449
3	5910	5.420543847498	450
3	5918	5.429047847826	451
3	5937	5.453005711655	452
3	5944	5.461509711983	453
3	5962	5.470240739668	454
3	5975	5.478744739996	455
3	5983	5.487248740324	456
3	6003	5.512322267429	457
3	6019	5.520826267757	458
3	6028	5.529330268085	459
3	6041	5.537834268413	460
3	6058	5.546338268741	461
3	6075	5.554842269069	462
3	6084	5.563346269397	463
3	6093	5.571850269725	464
3	6110	5.580354270054	465
3	6123	5.588858270382	466
3	6132	5.59736227071	467
3	6141	5.605866271038	468
3	6155	5.628950463996	469
3	6168	5.641011852244	470
3	6181	5.665246867219	471
3	6194	5.699049809284	472
3	6208	5.71572211201	473
3	6221	5.730152800704	474
3	6234	5.77144413087	475
3	6257	5.833665686348	476
3	6273	5.842169686677	477
3	6290	5.850673687005	478
3	6303	5.859177687334	479
3	6316	5.867681687662	480
3	6325	5.87618568799	481
3	6334	5.884689688319	482
3	6347	5.893193688647	483
3	6357	5.901697688976	484
3	6365	5.910201689304	485
3	6379	5.941303881091	486
3	6396	5.950803190593	487
3	6409	5.959307190921	488
3	6417	5.96781119125	489
3	6436	5.992672433302	490
3	6449	6.001176433631	491
3	6462	6.009680433959	492
3	6479	6.018184434288	493
3	6492	6.026688434617	494
3	6509	6.035192434945	495
3	6522	6.043696435274	496
3	6535	6.052200435602	497
3	6544	6.060704435931	498
3	6557	6.06920843626	499
3	6570	6.077712436588	500
3	6579	6.086216436917	501
3	6587	6.094720437246	502
3	6602	6.10919950801	503
3	6624	6.132993259893	504
3	6640	6.141497260222	505
3	6653	6.15000126055	506
3	6666	6.158505260879	507
3	6675	6.167009261208	508
3	6688	6.175513261536	509
3	6701	6.184017261865	510
3	6710	6.192521262194	511
3	6724	6.201025262523	512
3	6741	6.209529262852	513
3	6750	6.21803326318	514
3	6763	6.226537263509	515
3	6771	6.235041263838	516
3	6785	6.253754103419	517
3	6806	6.263168784146	518
3	6815	6.271672784475	519
3	6836	6.280176784804	520
3	6849	6.288680785133	521
3	6858	6.297184785462	522
3	6868	6.305688785791	523
3	6876	6.314192786119	524
3	6903	6.327787034864	525
3	6915	6.336291035193	526
3	6928	6.344795035522	527
3	6949	6.353299035851	528
3	6958	6.36180303618	529
3	6971	6.370307036509	530
3	6984	6.378811036838	531
3	6993	6.387315037167	532
3	7006	6.395819037495	533
3	7016	6.404323037824	534
3	7025	6.412827038153	535
3	7033	6.421331038482	536
3	7052	6.434041540438	537
3	7064	6.442545540767	538
3	7077	6.451049541096	539
3	7085	6.459553541425	540
3	7098	6.468245763945	541
3	7118	6.507733551436	542
3	7130	6.516237551765	543
3	7138	6.524741552094	544
3	7152	6.542408918355	545
3	7169	6.550964396436	546
3	7177	6.559468396765	547
3	7200	6.57461723036	548
3	7208	6.583121230689	549
3	7221	6.591625231018	550
3	7239	6.600129231348	551
3	7256	6.608633231677	552
3	7265	6.617137232006	553
3	7278	6.625641232335	554
3	7287	6.634145232664	555
3	7295	6.642649232993	556
3	7309	6.654319551635	557
3	7327	6.665893549224	558
3	7334	6.674397549553	559
3	7349	6.714910039783	560
3	7367	6.739558670543	561
3	7374	6.748062670872	562
3	7388	6.778608127458	563
3	7400	6.787962548166	564
3	7415	6.818777740903	565
3	7428	6.840033981559	566
3	7441	6.881446104714	567
3	7464	6.911722315423	568
3	7476	6.920226315753	569
3	7485	6.928730316082	570
3	7493	6.937234316411	571
3	7516	6.956856777231	572
3	7524	6.96536077756	573
3	7532	6.973864777889	574
3	7551	6.989327091527	575
3	7558	6.997831091857	576
3	7578	7.025038110457	577
3	7590	7.033542110787	578
3	7607	7.042046111116	579
3	7616	7.050550111446	580
3	7641	7.059054111775	581
3	7654	7.067558112105	582
3	7663	7.076062112434	583
3	7672	7.084566112764	584
3	7685	7.093070113093	585
3	7695	7.101574113423	586
3	7708	7.110078113752	587
3	7716	7.118582114082	588
3	7730	7.139895061024	589
3	7743	7.153293284426	590
3	7760	7.1623265206	591
3	7768	7.17083052093	592
3	7788	7.241034010929	593
3	7800	7.249538011259	594
3	7813	7.258042011589	595
3	7821	7.266546011918	596
3	7845	7.30643006527	597
3	7853	7.3149340656	598
3	7870	7.323438065929	599
3	7883	7.331942066259	600
3	7896	7.340446066589	601
3	7913	7.348950066919	602
3	7926	7.357454067248	603
3	7939	7.365958067578	604
3	7956	7.374462067908	605
3	7965	7.382966068238	606
3	7974	7.391470068568	607
3	7983	7.399974068897	608
3	7992	7.408478069227	609
3	8019	7.422969751435	610
3	8027	7.431473751765	611
3	8040	7.439977752095	612
3	8053	7.448481752425	613
3	8066	7.456985752755	614
3	8075	7.465489753084	615
3	8083	7.473993753414	616
3	8103	7.547480980506	617
3	8110	7.555984980836	618
3	8124	7.568021400498	619
3	8137	7.580200908471	620
3	8151	7.600324126047	621
3	8164	7.645193909525	622
3	8177	7.671658720198	623
3	8190	7.689014411737	624
3	8217	7.703392228949	625
3	8229	7.711896229279	626
3	8242	7.720400229609	627
3	8255	7.728904229939	628
3	8264	7.737408230269	629
3	8277	7.745912230599	630
3	8286	7.75441623093	631
3	8294	7.76292023126	632
3	8317	7.786017837832	633
3	8329	7.794521838162	634
3	8339	7.803025838493	635
3	8352	7.811529838823	636
3	8360	7.820033839153	637
3	8374	7.83859870622	638
3	8387	7.871553729942	639
3	8406	7.920752943364	640
3	8422	7.929256943695	641
3	8431	7.937760944025	642
3	8444	7.946264944355	643
3	8457	7.954768944685	644
3	8465	7.963272945016	645
3	8484	7.985004267881	646
3	8496	7.993508268211	647
3	8518	8.002012268541	648
3	8527	8.010516268871	649
3	8536	8.019020269202	650
3	8553	8.027524269532	651
3	8570	8.036028269862	652
3	8583	8.044532270193	653
3	8592	8.053036270523	654
3	8601	8.061540270853	655
3	8609	8.070044271184	656
3	8628	8.098119274137	657
3	8636	8.106623274468	658
3	8659	8.128082345688	659
3	8671	8.136586346019	660
3	8684	8.145090346349	661
3	8697	8.153594346679	662
3	8710	8.16209834701	663
3	8719	8.17060234734	664
3	8732	8.179106347671	665
3	8745	8.187610348001	666
3	8762	8.196114348331	667
3	8772	8.204618348662	668
3	8789	8.213122348992	669
3	8798	8.221626349323	670
3	8811	8.230130349653	671
3	8819	8.238634349984	672
3	8833	8.250041210214	673
3	8846	8.265591744616	674
3	8867	8.274830088205	675
3	8880	8.283334088536	676
3	8897	8.291838088866	677
3	8907	8.300342089197	678
3	8924	8.308846089527	679
3	8937	8.317350089858	680
3	8946	8.325854090188	681
3	8959	8.334358090519	682
3	8972	8.342862090849	683
3	8981	8.35136609118	684
3	8989	8.35987009151	685
3	9008	8.387371914371	686
3	9015	8.395875914701	687
3	9035	8.412904262845	688
3	9051	8.421408263176	689
3	9064	8.429912263506	690
3	9085	8.438416263837	691
3	9098	8.446920264167	692
3	9107	8.455424264498	693
3	9116	8.463928264829	694
3	9129	8.472432265159	695
3	9154	8.48093626549	696
3	9183	8.489440265821	697
3	9192	8.497944266151	698
3	9202	8.506448266482	699
3	9219	8.514952266813	700
3	9228	8.523456267143	701
3	9241	8.531960267474	702
3	9250	8.540464267805	703
3	9267	8.548968268135	704
3	9284	8.557472268466	705
3	9297	8.565976268797	706
3	9310	8.574480269127	707
3	9323	8.582984269458	708
3	9332	8.591488269789	709
3	9345	8.59999227012	710
3	9355	8.60849627045	711
3	9368	8.617000270781	712
3	9377	8.625504271112	713
3	9386	8.634008271442	714
3	9403	8.642512271773	715
3	9412	8.651016272104	716
3	9421	8.659520272435	717
3	9430	8.668024272766	718
3	9447	8.676528273096	719
3	9456	8.685032273427	720
3	9465	8.693536273758	721
3	9479	8.702040274089	722
3	9487	8.710544274419	723
3	9501	8.722296266509	724
3	9514	8.774736265566	725
3	9532	8.791825838419	726
3	9545	8.800329838749	727
3	9562	8.80883383908	728
3	9575	8.817337839411	729
3	9588	8.825841839742	730
3	9601	8.834345840073	731
3	9614	8.842849840404	732
3	9639	8.851353840735	733
3	9648	8.859857841066	734
3	9657	8.868361841397	735
3	9666	8.876865841727	736
3	9675	8.885369842058	737
3	9692	8.893873842389	738
3	9706	8.90237784272	739
3	9723	8.910881843051	740
3	9732	8.919385843382	741
3	9741	8.927889843713	742
3	9754	8.936393844044	743
3	9762	8.944897844375	744
3	9776	8.957373709619	745
3	9794	8.998088879779	746
3	9807	9.00659288011	747
3	9820	9.015096880441	748
3	9828	9.023600880772	749
3	9842	9.052499417737	750
3	9859	9.06132609914	751
3	9867	9.069830099471	752
3	9890	9.090242626166	753
3	9906	9.098746626497	754
3	9916	9.107250626828	755
3	9925	9.115754627159	756
3	9938	9.12425862749	757
3	9951	9.132762627821	758
3	9968	9.141266628152	759
3	9977	9.149770628483	760
3	9985	9.158274628814	761
3	9999	9.172185545045	762
3	10013	9.206996454894	763
3	10031	9.264772833141	764
3	10038	9.273276833472	765
3	10053	9.311075248317	766
3	10066	9.329910909305	767
3	10092	9.343423543404	768
3	10100	9.351927543735	769
3	10109	9.360431544066	770
3	10117	9.368935544397	771
3	10136	9.382629872424	772
3	10148	9.391133872755	773
3	10161	9.399637873086	774
3	10170	9.408141873418	775
3	10184	9.420294440064	776
3	10206	9.442607319802	777
3	10214	9.451111320133	778
3	10222	9.459615320465	779
3	10236	9.473291723225	780
3	10262	9.493738903274	781
3	10283	9.502242903606	782
3	10292	9.510746903937	783
3	10309	9.519250904268	784
3	10326	9.5277549046	785
3	10335	9.536258904931	786
3	10344	9.544762905262	787
3	10353	9.553266905594	788
3	10362	9.561770905925	789
3	10371	9.570274906256	790
3	10384	9.578778906588	791
3	10392	9.587282906919	792
3	10412	9.613289953264	793
3	10428	9.621793953595	794
3	10445	9.630297953927	795
3	10458	9.638801954258	796
3	10471	9.647305954589	797
3	10484	9.655809954921	798
3	10493	9.664313955252	799
3	10506	9.672817955584	800
3	10515	9.681321955915	801
3	10528	9.689825956247	802
3	10536	9.698329956578	803
3	10556	9.730432224222	804
3	10563	9.738936224554	805
3	10577	9.762977136679	806
3	10595	9.780611537156	807
3	10607	9.789115537488	808
3	10620	9.79761953782	809
3	10629	9.806123538151	810
3	10656	9.82656407682	811
3	10668	9.835068077152	812
3	10677	9.843572077483	813
3	10690	9.852076077815	814
3	10703	9.860580078146	815
3	10720	9.869084078478	816
3	10741	9.877588078809	817
3	10750	9.886092079141	818
3	10759	9.894596079472	819
3	10769	9.903100079804	820
3	10786	9.911604080136	821
3	10795	9.920108080467	822
3	10804	9.928612080799	823
3	10817	9.93711608113	824
3	10825	9.945620081462	825
3	10844	9.961318606974	826
3	10860	9.969822607306	827
3	10869	9.978326607638	828
3	10882	9.986830607969	829
3	10895	9.995334608301	830
3	10904	10.003838608632	831
3	10923	10.02388759706	832
3	10930	10.032391597392	833
3	10953	10.061282457516	834
3	10961	10.069786457848	835
3	10974	10.078290458179	836
3	10995	10.086794458511	837
3	11004	10.095298458843	838
3	11018	10.103802459174	839
3	11031	10.112306459506	840
3	11040	10.120810459838	841
4	0	0	0
5	0	0	0
6	0	0	0
6	0	0	0
6	0	0	2
6	8	0.022315250545	3
6	15	0.030819250545	2